3
Lattice="13.0 0.0 0.0 0.0 13.0 0.0 0.0 0.0 13.0" Properties=species:S:1:pos:R:3:forces:R:3 energy=-12.21263938 stress="3.0134006059764374e-05 -6.241509125883259e-09 -8.051546772389402e-07 -6.241509125883259e-09 2.9659651366197242e-05 1.6852074639884797e-07 -8.051546772389402e-07 1.6852074639884797e-07 2.993427776773611e-05" free_energy=-12.21263938 pbc="T T T"
O        3.14261000       1.26838000       8.48908000      -0.00091500       0.00004100      -0.00053000
H        3.10582000       0.30477000       8.61270000       0.00068600       0.00108900       0.00022800
H        4.02997000       1.52168000       8.79495000       0.00022900      -0.00113000       0.00030200
2
Lattice="13.0 0.0 0.0 0.0 13.0 0.0 0.0 0.0 13.0" Properties=species:S:1:pos:R:3:forces:R:3 energy=-9.52566541 stress="0.00020402869181599783 -3.120754562941629e-07 5.617358213294932e-08 -3.120754562941629e-07 0.00023297056963271848 1.0548150422742707e-06 5.617358213294932e-08 1.0548150422742707e-06 0.00020459042763732731" free_energy=-9.52566541 pbc="T T T"
O        6.51829000       6.98425000       6.43779000       0.00072200       0.00024000       0.00009000
H        6.48171000       6.01575000       6.56221000      -0.00072200      -0.00024000      -0.00009000
15
Lattice="3.879858028 0.0 0.0 -1.939929014 3.360055615 0.0 0.0 0.0 41.40729774" Properties=species:S:1:pos:R:3:forces:R:3 energy=-91.19291021 stress="0.008972194334493687 -0.0008940899407736509 3.895325845463741e-05 -0.0008940899407736509 0.009753943352510565 7.689539243088175e-05 3.895325845463741e-05 7.689539243088175e-05 0.0010754994035174477" free_energy=-91.19291021 pbc="T T T"
Ce       2.00044000       2.51103000      16.82628000      -0.00049400      -0.00115300       0.00505800
Ce       2.00187000       0.27364000      19.99937000      -0.00117800       0.00108000      -0.00152400
Ce       0.06009000       1.38920000      13.67720000       0.00004700       0.00200400       0.00575700
Ce       0.05023000       1.38803000      23.15661000       0.00036400      -0.00194000      -0.00351900
O        0.52077000       1.59316000      25.89328000      -0.00219800      -0.00363000      -0.00120200
O        2.03063000       2.53180000      23.92363000      -0.00084900      -0.00340000      -0.00035800
O        2.00060000       0.27096000      17.61796000      -0.00017400       0.00389500      -0.00092800
O        2.00114000       2.51342000      19.20689000      -0.00081200      -0.00378000       0.00095400
O        2.00029000       2.50974000      14.47706000      -0.00252600      -0.00082100       0.00353100
O        1.99966000       0.26908000      12.90108000       0.00193200       0.00135300       0.00705900
O        2.00693000       0.27785000      22.35878000      -0.00292700       0.00008200      -0.00515300
O        0.06097000       1.39415000      20.80090000       0.00260700      -0.00252500      -0.00411800
O        0.05989000       1.39007000      16.01894000       0.00410800       0.00240100       0.00193200
H        0.81803000       0.75338000      26.29272000      -0.00269900       0.00683400      -0.00267900
H        1.33552000       2.00313000      25.48660000       0.00479900      -0.00040000      -0.00480800
15
Lattice="3.879858028 0.0 0.0 -1.939929014 3.360055615 0.0 0.0 0.0 41.40729774" Properties=species:S:1:pos:R:3:forces:R:3 energy=-90.85016514 stress="0.0011188903749605882 -0.00016046919962645856 -7.090354367003382e-05 -0.00016046919962645856 0.0009242052223060376 -9.120717285653205e-05 -7.090354367003382e-05 -9.120717285653205e-05 0.0011246450463746527" free_energy=-90.85016514 pbc="T T T"
Ce       2.05715000       2.50171000      16.87712000       0.00601800       0.00800900      -0.00177100
Ce       2.05678000       0.26251000      20.04849000       0.00515600      -0.00966800       0.00338600
Ce       0.12062000       1.38312000      13.72685000      -0.00833600      -0.00107400       0.02020400
Ce       0.12554000       1.37537000      23.23406000      -0.01185500      -0.00639900      -0.00831800
O        0.01731000       1.44661000      25.47808000      -0.00633000       0.00057200      -0.01497300
O        2.06173000       2.49745000      23.99976000       0.00522800       0.01626300      -0.01900400
O        2.05693000       0.26396000      17.66939000       0.00580400      -0.01343800      -0.00085100
O        2.05677000       2.50059000      19.25676000       0.00492500       0.01129000      -0.00314500
O        2.05825000       2.50188000      14.52788000       0.00765700       0.01000200      -0.00087600
O        2.05896000       0.26442000      12.95220000       0.00054400      -0.00734600       0.00451500
O        2.05577000       0.26103000      22.43071000       0.00690500      -0.00937500       0.00504000
O        0.11891000       1.38090000      20.84137000      -0.01378900       0.00244900       0.00894600
O        0.11968000       1.38312000      16.07045000      -0.01221700      -0.00348500      -0.00473400
H        0.59156000       1.04007000      26.15328000       0.01069900      -0.00175900       0.00479400
H        2.09110000       2.44730000      24.97787000      -0.00040700       0.00396000       0.00678700
30
Lattice="3.879858028 0.0 0.0 -3.879858028 6.720111231 0.0 0.0 0.0 41.40729774" Properties=species:S:1:pos:R:3:forces:R:3 energy=-182.52767521 stress="0.003755341278788432 8.550867502460063e-07 -9.892791964524964e-06 8.550867502460063e-07 0.005082123839713939 2.645775718461913e-05 -9.892791964524964e-06 2.645775718461913e-05 0.000647831198211927" free_energy=-182.52767521 pbc="T T T"
Ce       1.44727000       0.55149000      14.71438000      -0.00022000      -0.00032200       0.00072500
Ce       1.44634000       0.62967000      24.16910000       0.00015900       0.00382500       0.00550400
Ce      -0.49273000       1.66749000      17.86545000      -0.00120300      -0.00454900       0.00012500
Ce       1.44652000       2.80757000      21.01899000       0.00059400       0.00349900      -0.00020400
Ce      -0.49285000       3.91080000      14.71609000       0.00044400       0.00254100      -0.00238900
Ce      -0.49342000       3.88218000      24.23477000       0.00002600      -0.00485600       0.00365800
Ce      -2.43263000       5.03410000      17.85831000      -0.00116900       0.00476100       0.00274800
Ce      -0.49337000       6.13840000      21.04286000       0.00079300      -0.00127400      -0.00590700
O        1.44734000       0.55712000      17.06294000      -0.00024700      -0.00047900      -0.00136500
O        1.44612000       0.60078000      21.87667000       0.00195300      -0.00289700       0.00077400
O        1.44641000       1.47804000      26.60708000      -0.00538300      -0.00190600      -0.00053200
O        1.44704000       2.79141000      13.94323000       0.00145500      -0.00298000       0.00020300
O       -0.49244000       1.66533000      15.51376000      -0.00173100      -0.00191700      -0.00136900
O        1.44668000       2.80916000      18.66146000       0.00123400      -0.00019500      -0.00293500
O       -0.49347000       1.63550000      20.22029000       0.00001400      -0.00117000       0.00105300
O        1.44653000       2.96968000      23.43328000      -0.00069000       0.00406900       0.00086000
O       -0.49361000       1.61242000      24.59398000       0.00056100      -0.00435300      -0.00191100
O       -0.49303000       3.90418000      17.04861000       0.00106100      -0.00088200      -0.00139400
O       -0.49328000       3.86591000      21.76196000      -0.00016000       0.00214900      -0.00012300
O       -0.49331000       3.43861000      26.57988000      -0.00109400       0.00069100       0.00201300
O       -0.49274000       6.14917000      13.93909000       0.00018500       0.00025500      -0.00069500
O       -2.43267000       5.03555000      15.51557000      -0.00058800       0.00322200       0.00114700
O       -0.49276000       6.13303000      18.64498000      -0.00007700       0.00058500       0.00041600
O       -2.43285000       5.06737000      20.25809000      -0.00148500       0.00036700       0.00053500
O       -0.49351000       6.00267000      23.38572000      -0.00048600       0.00482000       0.00067100
O       -2.43335000       5.17300000      25.22687000       0.00023900       0.00399600      -0.00915600
H        2.22561000       2.09460000      26.72348000       0.00134800      -0.00348700       0.00089200
H        0.66655000       2.09401000      26.72377000       0.00464000      -0.00629500      -0.00020400
H       -0.49355000       4.04451000      27.34280000       0.00021000       0.00046700      -0.00045600
H       -2.43308000       4.97010000      26.18076000      -0.00038200       0.00231500       0.00731600
30
Lattice="3.879858028 0.0 0.0 -3.879858028 6.720111231 0.0 0.0 0.0 41.40729774" Properties=species:S:1:pos:R:3:forces:R:3 energy=-182.40032343 stress="0.008810882531135236 -0.0009708729860402666 -2.5259387432449546e-05 -0.0009708729860402666 0.009569157233329666 3.7711198138586645e-05 -2.5259387432449546e-05 3.7711198138586645e-05 0.0009638700128010257" free_energy=-182.40032343 pbc="T T T"
Ce      -0.03399000       1.47069000      13.71266000       0.00053300      -0.00205400       0.00605400
Ce      -0.03416000       5.94938000      16.85934000       0.00021600      -0.00048600       0.00014500
Ce      -0.03606000       3.71276000      20.03559000       0.00016300       0.00228800       0.00175700
Ce      -0.04850000       1.45714000      23.17865000       0.00165700      -0.00280700       0.00147400
Ce       1.90630000       2.59046000      16.86205000      -0.00215200      -0.00189200       0.00225000
Ce       1.90789000       0.34827000      20.02954000      -0.00218400       0.00071900       0.00504500
Ce      -1.98227000       4.82836000      23.20096000       0.00226900       0.00504000      -0.00187700
Ce      -1.97399000       4.83016000      13.71212000       0.00186700       0.00114500      -0.00042100
O       -0.03403000       3.70902000      12.93670000       0.00055500      -0.00159600       0.00485500
O       -0.03357000       5.94999000      14.51139000      -0.00128100      -0.00087900       0.00840300
O       -0.03425000       1.47024000      16.05480000       0.00181300       0.00062100       0.00225900
O       -0.03367000       3.71326000      17.65355000       0.00005400       0.00509900      -0.00219300
O       -0.03586000       5.95418000      19.24533000      -0.00023000       0.00160500      -0.00299800
O       -0.02949000       1.48345000      20.83798000       0.00257900      -0.00124800      -0.00229600
O       -0.04543000       3.74248000      22.41345000      -0.00140800       0.00313000       0.00189000
O        0.02691000       6.01344000      23.98285000       0.00115400      -0.00351600       0.00240400
O        0.28628000       2.05330000      25.96552000      -0.00053600       0.00315600      -0.00705100
O        1.90675000       0.34849000      12.93764000      -0.00194800       0.00488100       0.00093900
O        1.90611000       2.58948000      14.51213000      -0.00149900      -0.00214400      -0.00044100
O        1.90565000       0.34651000      17.64969000      -0.00170700      -0.00034500       0.00236400
O        1.90730000       2.58626000      19.23603000      -0.00166900      -0.00597400       0.00016200
O        1.92440000       0.32609000      22.37015000      -0.00116000       0.00099000      -0.00803800
O        1.89205000       2.56799000      23.92420000      -0.00357300       0.00165900      -0.00404700
O       -1.36013000       4.76375000      25.88004000      -0.00028700       0.00314000      -0.00408600
O       -1.98084000       4.81704000      20.83010000       0.00179300      -0.00012200      -0.00220200
O       -1.97399000       4.82888000      16.05212000       0.00193000       0.00182000       0.00326300
H        0.52864000       1.33534000      26.57783000       0.00220600      -0.00872900      -0.00250100
H        1.12877000       2.31747000      25.48971000       0.00111500      -0.00216300      -0.00164500
H       -0.94733000       3.91083000      26.13269000       0.00131600      -0.00182400      -0.00231600
H       -0.60728000       5.32464000      25.55314000      -0.00158700       0.00048600      -0.00115200
30
Lattice="3.879858028 0.0 0.0 -3.879858028 6.720111231 0.0 0.0 0.0 41.40729774" Properties=species:S:1:pos:R:3:forces:R:3 energy=-182.35062858 stress="0.005333394514103747 0.0005138447218065909 -1.2302014487115902e-05 0.0005138447218065909 0.005575777279498297 -2.814296464860761e-05 -1.2302014487115902e-05 -2.814296464860761e-05 0.0009589579451189555" free_energy=-182.35062858 pbc="T T T"
Ce       0.03407000       1.42742000      13.72451000       0.00068100      -0.00315900       0.00433900
Ce       0.03425000       5.90973000      16.87153000       0.00041900      -0.00350300      -0.00301800
Ce       0.03597000       3.67967000      20.03426000       0.00028000      -0.00079800      -0.00138000
Ce       0.05014000       1.48622000      23.19138000       0.00139900      -0.00182200       0.00041200
Ce       1.97405000       2.54293000      16.87667000      -0.00243500       0.00078900       0.00198000
Ce       1.97145000       0.29557000      20.05772000      -0.00234000       0.00299600       0.00101600
Ce      -1.90535000       4.75059000      23.23995000       0.00221100      -0.00201200      -0.00376500
Ce      -1.90605000       4.78698000      13.72669000       0.00228200       0.00174700      -0.00025100
O        0.03406000       3.66704000      12.95255000       0.00056300      -0.00225000       0.00490100
O        0.03433000       5.91144000      14.52597000      -0.00145000      -0.00139400       0.00852200
O        0.03406000       1.43171000      16.07323000       0.00229700       0.00133800       0.00382000
O        0.03330000       3.68213000      17.67346000      -0.00009900       0.00486900      -0.00041400
O        0.03616000       5.93905000      19.27187000       0.00045000       0.00079800      -0.00066400
O        0.02540000       1.47350000      20.89002000       0.00309800      -0.00154300      -0.00242900
O        0.04977000       3.82595000      22.45294000       0.00036900       0.00405400       0.00131200
O       -0.08764000       6.06785000      24.23739000      -0.00227700      -0.00124000       0.00074000
O        0.24005000       2.09800000      25.80014000      -0.00164900      -0.00855900      -0.00246200
O        1.97460000       0.30438000      12.94902000      -0.00166400       0.00439900       0.00065800
O        1.97427000       2.54159000      14.52449000      -0.00166500      -0.00258200       0.00037900
O        1.97486000       0.28999000      17.65821000      -0.00156500       0.00019700       0.00338600
O        1.97138000       2.51436000      19.23515000      -0.00180200      -0.00636900       0.00103900
O        1.94347000       0.17535000      22.39801000      -0.00074400      -0.00164800      -0.00665700
O        2.02035000       2.49134000      23.66062000      -0.00354900       0.00315000      -0.00341700
O       -2.42751000       4.51542000      25.57202000       0.00020800      -0.00006000      -0.00101100
O       -1.89779000       4.74237000      20.78396000       0.00222900      -0.00069300      -0.00159400
O       -1.90622000       4.78033000      16.06070000       0.00167400       0.00095400       0.00326900
H        0.89781000       1.51359000      26.22240000       0.00533500      -0.00027500      -0.00548400
H        0.70543000       3.00298000      25.77692000       0.00513300       0.00695100      -0.00189000
H       -1.70842000       4.52857000      26.22962000      -0.00644800       0.00291800      -0.00140100
H        0.31467000       5.72463000      25.08450000      -0.00094100       0.00274500       0.00006200
30
Lattice="3.879858028 0.0 0.0 -3.879858028 6.720111231 0.0 0.0 0.0 41.40729774" Properties=species:S:1:pos:R:3:forces:R:3 energy=-182.18314572 stress="0.005249415008814988 -0.001496776303478064 -2.179534986758434e-05 -0.001496776303478064 0.005735672260285176 5.035649562762613e-05 -2.179534986758434e-05 5.035649562762613e-05 0.001046782220029259" free_energy=-182.18314572 pbc="T T T"
Ce      -0.01487000       1.50887000      13.73681000      -0.00015900      -0.00034000       0.00765800
Ce      -0.01491000       5.98511000      16.88460000      -0.00053900       0.00150200       0.00330700
Ce      -0.01694000       3.74410000      20.07263000      -0.00079300       0.00380700      -0.00193000
Ce      -0.03737000       1.44746000      23.24225000       0.00294200      -0.00542600      -0.00430600
Ce       1.92487000       2.63100000      16.88542000      -0.00000100      -0.00168000       0.00049100
Ce       1.92620000       0.39427000      20.04385000      -0.00019600      -0.00155700      -0.00063700
Ce      -1.92353000       4.92036000      23.20981000      -0.00165800       0.00545100      -0.00376600
Ce      -1.95422000       4.86803000      13.73470000      -0.00140400       0.00195100       0.00450200
O       -0.01490000       3.74651000      12.95914000       0.00028500      -0.00045500       0.00730400
O       -0.01420000       5.98435000      14.53535000      -0.00208100       0.00037800       0.00222400
O       -0.01566000       1.50492000      16.07540000       0.00400600       0.00592700       0.00392400
O       -0.01475000       3.74236000      17.67550000       0.00052000      -0.00261700       0.00052700
O       -0.01612000       5.97778000      19.25824000      -0.00030600      -0.00515800      -0.00060500
O       -0.01105000       1.49307000      20.83740000       0.00448300       0.00610500       0.00176700
O       -0.03819000       3.73418000      22.42300000      -0.00277200       0.00180300      -0.00348400
O        0.04991000       6.00077000      23.92767000      -0.00019700      -0.00269900       0.00191700
O        0.05490000       1.91705000      25.57880000      -0.00217900       0.00064900      -0.00317300
O        1.92519000       0.38859000      12.96369000       0.00177200      -0.00153200       0.00383400
O        1.92501000       2.63138000      14.53685000      -0.00107300      -0.00159600       0.00572000
O        1.92454000       0.39405000      17.67807000      -0.00036100       0.00634000       0.00045700
O        1.92579000       2.63999000      19.27485000      -0.00059300       0.00362900      -0.00078200
O        1.94284000       0.41016000      22.42381000      -0.00033600       0.00195800      -0.00144100
O        1.89683000       2.65759000      23.97249000      -0.00400400      -0.00064300      -0.00169300
O       -1.22536000       4.47644000      25.84521000       0.00508900      -0.00350600      -0.00417900
O       -1.95889000       4.88699000      20.87802000      -0.00244500      -0.00711400      -0.00580800
O       -1.95439000       4.87037000      16.08109000      -0.00067500      -0.00277600      -0.00119400
H        0.17423000       1.27270000      26.29782000      -0.00430700      -0.00320600       0.00240900
H        1.56569000       2.49686000      24.90556000       0.00486400       0.00002800      -0.00515200
H       -0.77247000       3.58948000      25.92884000      -0.00047400       0.00350000      -0.00154100
H       -0.50067000       5.13165000      25.87790000       0.00259200      -0.00272100      -0.00634900
30
Lattice="3.879858028 0.0 0.0 -3.879858028 6.720111231 0.0 0.0 0.0 41.40729774" Properties=species:S:1:pos:R:3:forces:R:3 energy=-182.35073951 stress="0.005129765278871806 0.0005550574065647982 -7.308183035496708e-05 0.0005550574065647982 0.0055017717057927 0.00013361822736690878 -7.308183035496708e-05 0.00013361822736690878 0.0007052093916061717" free_energy=-182.35073951 pbc="T T T"
Ce       0.06247000       1.41512000      13.66472000      -0.00019700      -0.00097600      -0.00077000
Ce       0.06221000       5.89848000      16.80996000       0.00010700       0.00313500       0.00700500
Ce       0.06383000       3.67208000      19.97051000      -0.00176800      -0.00016500       0.00076200
Ce       0.07688000       1.48265000      23.12698000      -0.00106400       0.00008200       0.00199300
Ce       2.00182000       2.53185000      16.81490000      -0.00049400       0.00134800       0.00814700
Ce       1.99842000       0.28875000      19.99396000      -0.00160700       0.00091400      -0.00043200
Ce      -1.87867000       4.74759000      23.17187000       0.00028000      -0.00307600       0.00478600
Ce      -1.87766000       4.77498000      13.66658000       0.00016000       0.00181000      -0.00203400
O        0.06265000       3.65508000      12.89371000      -0.00053100      -0.00013500       0.00078200
O        0.06212000       5.89980000      14.46614000       0.00056800       0.00064800       0.00138900
O        0.06238000       1.42075000      16.01319000       0.00010000       0.00108700      -0.00336700
O        0.06135000       3.67260000      17.61171000      -0.00171200       0.00399500      -0.00300000
O        0.06402000       5.93129000      19.20944000      -0.00099000      -0.00274900      -0.00375600
O        0.05209000       1.46802000      20.82564000      -0.00073100      -0.00019100      -0.00017000
O        0.07704000       3.82204000      22.38807000       0.00124400      -0.00032300      -0.00332000
O       -0.07139000       6.06728000      24.16869000       0.00353500      -0.00013100       0.00438300
O        0.28014000       2.08747000      25.73467000       0.00529900       0.00115400      -0.00106800
O        2.00236000       0.29257000      12.88861000      -0.00080700      -0.00010500       0.00174200
O        2.00246000       2.52878000      14.46405000      -0.00042200       0.00114400      -0.00238400
O        2.00257000       0.27923000      17.59632000      -0.00007300       0.00003300      -0.00417800
O        1.99875000       2.50495000      19.17169000      -0.00122200       0.00340200      -0.00121900
O        1.96672000       0.17158000      22.33122000      -0.00108800       0.00176900       0.00072100
O        2.04811000       2.48985000      23.59634000       0.00091700      -0.00527800      -0.00130600
O       -2.41972000       4.51966000      25.50545000      -0.00302600      -0.00356900      -0.00347100
O       -1.86963000       4.73500000      20.72001000      -0.00087400      -0.00098500      -0.00189700
O       -1.87806000       4.76839000      15.99938000       0.00025100       0.00362800      -0.00100700
H        0.96009000       1.51236000      26.13457000      -0.00184700      -0.00165800      -0.00074700
H        0.72933000       3.00103000      25.71268000      -0.00466600      -0.00445900      -0.00053000
H       -1.71854000       4.57097000      26.17965000       0.00856000      -0.00365800       0.00072600
H        0.33756000       5.71207000      25.01020000       0.00209900       0.00331100       0.00221900
30
Lattice="3.879858028 0.0 0.0 -3.879858028 6.720111231 0.0 0.0 0.0 41.40729774" Properties=species:S:1:pos:R:3:forces:R:3 energy=-182.41075571 stress="0.008342588342929341 0.0007387512616486684 -7.898629798805263e-05 0.0007387512616486684 0.00969218361970995 -4.502624683412182e-05 -7.898629798805263e-05 -4.502624683412182e-05 0.0007031684181220079" free_energy=-182.41075571 pbc="T T T"
Ce       1.55099000       0.55719000      14.68710000       0.00038100       0.00451900       0.00089500
Ce       1.55728000       0.55158000      24.17613000      -0.00028400       0.00050100      -0.00087300
Ce      -0.38936000       1.67585000      17.83374000       0.00017400      -0.00057800      -0.00149600
Ce       1.55029000       2.79461000      21.00176000      -0.00076800      -0.00016400      -0.00141200
Ce      -0.38884000       3.91769000      14.68752000      -0.00009700      -0.00107200       0.00134200
Ce      -0.37952000       3.90967000      24.14022000       0.00017400      -0.00208200       0.00036400
Ce      -2.32890000       5.03719000      17.83499000      -0.00003100      -0.00079700      -0.00299900
Ce      -0.39247000       6.15734000      21.00647000      -0.00085500       0.00007500      -0.00055900
O        1.55145000       0.55687000      17.02807000      -0.00357800       0.00133600       0.00141400
O        1.54419000       0.56531000      21.81798000       0.00105100       0.00185300       0.00289000
O        1.35223000       1.14497000      26.85389000       0.00893100       0.00149400       0.00268300
O        1.55108000       2.79698000      13.91245000      -0.00059100      -0.00384200       0.00057500
O       -0.38902000       1.67695000      15.48670000       0.00146600      -0.00454300      -0.00111500
O        1.55020000       2.79850000      18.62578000      -0.00202100       0.00229700       0.00044500
O       -0.39189000       1.66863000      20.20892000       0.00098200      -0.00005000      -0.00188700
O        1.55236000       2.83597000      23.36337000      -0.00129900      -0.00373800      -0.00013600
O       -0.39610000       1.67237000      24.84625000       0.00448500      -0.00096600      -0.00071300
O       -0.38903000       3.91612000      17.02660000      -0.00097700      -0.00078500       0.00645600
O       -0.38632000       3.90536000      21.79126000      -0.00079300       0.00163300       0.00015100
O       -1.11554000       3.86708000      26.91990000      -0.00221600       0.00276400       0.00108500
O       -0.38863000       6.15742000      13.91334000      -0.00082000      -0.00190900      -0.00542800
O       -2.32876000       5.03702000      15.48642000      -0.00063300       0.00284200       0.00308500
O       -0.38859000       6.15469000      18.62344000      -0.00304200      -0.00361400      -0.00091500
O       -2.32881000       5.04242000      20.21686000      -0.00072600       0.00132900      -0.00132500
O       -0.40783000       6.12001000      23.35697000       0.00208600       0.00140000       0.00212200
O       -2.38713000       5.06246000      24.98850000       0.00021700       0.00481100      -0.00228300
H        1.88145000       1.95153000      27.04166000      -0.00181300      -0.00490900       0.00059000
H        0.46732000       1.48655000      26.58085000      -0.00138600      -0.00137700       0.00017200
H       -0.63774000       4.40793000      27.57434000       0.00215900       0.00492900      -0.00098000
H       -1.75059000       4.48764000      26.43269000      -0.00017600      -0.00135600      -0.00214800
60
Lattice="3.879858028 0.0 0.0 -7.759716056 13.440222461 0.0 0.0 0.0 41.40729774" Properties=species:S:1:pos:R:3:forces:R:3 energy=-364.80169173 stress="0.008804010629587636 -0.0009582464130786048 -4.604985433076668e-05 -0.0009582464130786048 0.009569319512566938 2.3592904495838718e-05 -4.604985433076668e-05 2.3592904495838718e-05 0.0009186502791840015" free_energy=-364.80169173 pbc="T T T"
Ce       1.90804000       2.58806000      16.86231000       0.00074200       0.00205400       0.00032900
Ce       1.91002000       0.34606000      20.02992000      -0.00004100       0.00156900      -0.00584700
Ce      -0.03160000       1.46834000      13.71447000       0.00088700       0.00415400      -0.00256200
Ce      -0.03136000       5.94733000      16.85967000       0.00017200      -0.00141300      -0.00178000
Ce      -0.03447000       3.71044000      20.03532000       0.00122300      -0.00137100      -0.00146800
Ce      -0.04685000       1.45471000      23.17892000      -0.00029000       0.00362500      -0.00458400
Ce      -1.97134000       4.82843000      13.71226000       0.00046600      -0.00236600      -0.00070400
Ce      -1.96935000       7.06596000      20.03030000      -0.00043400       0.00083500      -0.00422200
Ce      -1.96962000       9.30809000      16.86290000      -0.00148600       0.00171300      -0.00286600
Ce      -1.98132000       4.82564000      23.20043000       0.00177200       0.00073600      -0.00262100
Ce      -3.90955000       8.18869000      13.71335000      -0.00090400      -0.00138600       0.00183500
Ce      -3.91069000      12.66706000      16.86022000      -0.00011800      -0.00069300      -0.00074100
Ce      -3.91217000      10.43055000      20.03601000      -0.00102400      -0.00181200      -0.00554000
Ce      -3.92520000       8.17455000      23.17953000       0.00032800       0.00154900      -0.00058500
Ce      -5.84967000      11.54816000      13.71325000       0.00059400      -0.00233800       0.00323700
Ce      -5.85914000      11.54599000      23.19987000      -0.00036300      -0.00418400       0.00151000
O        0.02876000       6.00860000      23.98399000      -0.00022700       0.00222200      -0.00341400
O        0.28872000       2.03534000      25.96257000      -0.00148300       0.00037800      -0.00333700
O        1.89388000       2.56690000      23.92402000      -0.00054700      -0.00151200      -0.00056100
O        1.90818000       0.34448000      17.65014000       0.00041700      -0.00277200       0.00266300
O        1.90854000       2.58327000      19.23595000       0.00207200      -0.00025800       0.00222700
O        1.90789000       2.58761000      14.51277000       0.00152700      -0.00119200       0.00357000
O        1.91073000       0.34701000      12.93969000      -0.00296500      -0.00186000      -0.00112700
O        1.92553000       0.32442000      22.36997000       0.00087000      -0.00040000       0.00253900
O       -0.02740000       1.48086000      20.83777000      -0.00126000      -0.00168500       0.00235000
O       -0.03224000       3.70685000      12.93739000       0.00131500       0.00125400       0.00599600
O       -0.03116000       5.94814000      14.51205000       0.00030600       0.00066900       0.00574900